title= "2d inverse b. l. summary"
variables="s","x/c","uei","delst","theta","vw""cf","uev" 
zone i=  101 F = point
  0.000000  0.004533  0.000000  0.000000  0.000000  0.000000  0.000000  0.000000
  0.006013  0.006250  0.763530  0.000079  0.000033  0.632293  0.015417  0.763530
  0.019510  0.017960  0.844510  0.000159  0.000065  0.537258  0.006915  0.844510
  0.031522  0.028730  0.932170  0.000178  0.000076  0.626629  0.006040  0.932170
  0.043012  0.039290  0.997460  0.000198  0.000085  0.625941  0.004993  0.997460
  0.054134  0.049720  1.045990  0.000217  0.000092  0.620337  0.004307  1.045990
  0.064994  0.060070  1.081400  0.000238  0.000100  0.595015  0.003708  1.081400
  0.075646  0.070350  1.106490  0.000259  0.000109  0.568326  0.003246  1.106490
  0.086145  0.080580  1.123320  0.000283  0.000117  0.533327  0.002833  1.123320
  0.096522  0.090770  1.133570  0.000309  0.000126  0.498384  0.002489  1.133570
  0.106802  0.100920  1.138630  0.000337  0.000136  0.460078  0.002180  1.138630
  0.117007  0.111040  1.139650  0.000368  0.000145  0.422685  0.001912  1.139650
  0.127154  0.121130  1.137640  0.000401  0.000156  0.383459  0.001666  1.137640
  0.137248  0.131190  1.133290  0.000437  0.000166  0.345156  0.001446  1.133290
  0.147318  0.141240  1.127260  0.000476  0.000178  0.366961  0.001256  1.126550
  0.157349  0.151260  1.120170  0.000516  0.000189  0.328387  0.001092  1.119446
  0.167364  0.161270  1.112340  0.000558  0.000200  0.288163  0.000943  1.111768
  0.177356  0.171260  1.104030  0.000605  0.000212  0.247861  0.000802  1.103876
  0.187326  0.181230  1.095590  0.000654  0.000223  0.211451  0.000677  1.095921
  0.197296  0.191200  1.087260  0.000705  0.000235  0.180028  0.000570  1.088081
  0.207247  0.201150  1.079120  0.000757  0.000246  0.153022  0.000480  1.080497
  0.217188  0.211090  1.071280  0.000808  0.000256  0.130797  0.000407  1.073264
  0.227119  0.221020  1.064010  0.000858  0.000267  0.114127  0.000351  1.066471
  0.237042  0.230940  1.057130  0.000906  0.000277  0.100976  0.000308  1.060118
  0.246955  0.240850  1.050770  0.000950  0.000287  0.091963  0.000278  1.054212
  0.256869  0.250760  1.044950  0.000990  0.000296  0.086804  0.000260  1.048744
  0.266774  0.260660  1.039700  0.001023  0.000305  0.085331  0.000253  1.043709
  0.276669  0.270550  1.035080  0.001050  0.000314  0.087463  0.000256  1.039102
  0.286564  0.280440  1.030950  0.001072  0.000322  0.092310  0.000268  1.034901
  0.296449  0.290320  1.027310  0.001088  0.000329  0.099810  0.000287  1.031105
  0.306325  0.300190  1.024290  0.001097  0.000337  0.110295  0.000313  1.027728
  0.316211  0.310070  1.021700  0.001103  0.000344  0.122490  0.000343  1.024756
  0.326077  0.319930  1.019520  0.001105  0.000350  0.135931  0.000377  1.022189
  0.335953  0.329800  1.017760  0.001105  0.000356  0.150439  0.000412  1.020011
  0.345819  0.339660  1.016340  0.001103  0.000361  0.165236  0.000448  1.018205
  0.355685  0.349520  1.015300  0.001100  0.000366  0.180292  0.000482  1.016749
  0.365551  0.359380  1.014530  0.001097  0.000371  0.194574  0.000514  1.015600
  0.375418  0.369240  1.013940  0.001094  0.000375  0.207427  0.000542  1.014702
  0.385276  0.379090  1.013490  0.001092  0.000379  0.218772  0.000566  1.014003
  0.395144  0.388950  1.013240  0.001091  0.000383  0.229131  0.000585  1.013469
  0.405003  0.398800  1.013070  0.001092  0.000386  0.237468  0.000599  1.013044
  0.414863  0.408650  1.012860  0.001095  0.000390  0.243217  0.000607  1.012659
  0.424724  0.418500  1.012690  0.001099  0.000394  0.247281  0.000610  1.012278
  0.434596  0.428360  1.012440  0.001106  0.000398  0.248661  0.000607  1.011845
  0.444460  0.438210  1.011990  0.001116  0.000402  0.246873  0.000597  1.011294
  0.454326  0.448060  1.011430  0.001129  0.000406  0.243039  0.000582  1.010603
  0.464194  0.457910  1.010700  0.001144  0.000410  0.236496  0.000560  1.009732
  0.474075  0.467770  1.009620  0.001164  0.000415  0.226150  0.000532  1.008622
  0.483949  0.477620  1.008220  0.001189  0.000420  0.212986  0.000497  1.007253
  0.493836  0.487480  1.006540  0.001219  0.000426  0.197533  0.000458  1.005621
  0.503728  0.497340  1.004430  0.001254  0.000432  0.179164  0.000413  1.003714
  0.513624  0.507200  1.001940  0.001295  0.000439  0.159103  0.000365  1.001557
  0.523524  0.517060  0.999010  0.001342  0.000446  0.137853  0.000315  0.999184
  0.533429  0.526920  0.995550  0.001395  0.000453  0.116491  0.000265  0.996651
  0.543350  0.536790  0.991640  0.001451  0.000461  0.094694  0.000213  0.993845
  0.553278  0.546660  0.987220  0.001508  0.000470  0.069900  0.000157  0.990659
  0.563211  0.556530  0.982280  0.001561  0.000480  0.042976  0.000095  0.987085
  0.573151  0.566400  0.976810  0.001606  0.000491  0.012969  0.000031  0.982701
  0.583109  0.576280  0.970790  0.001638  0.000506 -0.014304 -0.000025  0.977090
  0.593064  0.586150  0.964230  0.001655  0.000526 -0.028675 -0.000056  0.970031
  0.603047  0.596040  0.957110  0.001658  0.000548 -0.026432 -0.000045  0.961734
  0.613027  0.605920  0.949640  0.001651  0.000575  0.002626  0.000017  0.952386
  0.623024  0.615810  0.941510  0.001646  0.000604  0.050078  0.000118  0.942737
  0.633029  0.625700  0.932850  0.001647  0.000635  0.096785  0.000229  0.933068
  0.643040  0.635590  0.923810  0.001657  0.000667  0.138944  0.000334  0.923365
  0.653068  0.645490  0.914370  0.001677  0.000702  0.177525  0.000432  0.913529
  0.663101  0.655390  0.904440  0.001709  0.000739  0.209471  0.000517  0.903556
  0.673151  0.665300  0.894160  0.001751  0.000778  0.234099  0.000590  0.893387
  0.683204  0.675210  0.883610  0.001802  0.000821  0.257054  0.000656  0.883032
  0.693261  0.685120  0.872690  0.001864  0.000866  0.274931  0.000712  0.872526
  0.703329  0.695040  0.861540  0.001934  0.000913  0.284414  0.000760  0.861727
  0.713226  0.704790  0.850500  0.002012  0.000964  0.301592  0.000806  0.851188
  0.722970  0.714390  0.839400  0.002097  0.001015  0.305699  0.000841  0.840680
  0.732732  0.724010  0.828060  0.002191  0.001067  0.310071  0.000867  0.830128
  0.742512  0.733650  0.816740  0.002292  0.001121  0.312709  0.000890  0.819632
  0.752317  0.743320  0.805520  0.002397  0.001174  0.312352  0.000905  0.809232
  0.762135  0.753010  0.794140  0.002509  0.001225  0.307485  0.000912  0.798905
  0.771978  0.762730  0.782870  0.002625  0.001273  0.302435  0.000913  0.788740
  0.781839  0.772480  0.771800  0.002741  0.001317  0.296494  0.000914  0.778831
  0.791712  0.782250  0.760940  0.002854  0.001356  0.291054  0.000932  0.769244
  0.801605  0.792050  0.750300  0.002962  0.001392  0.309361  0.000992  0.759558
  0.811504  0.801870  0.740070  0.003061  0.001422  0.329559  0.001065  0.750127
  0.821432  0.811730  0.730090  0.003151  0.001445  0.337812  0.001121  0.741031
  0.831365  0.821610  0.720860  0.003227  0.001462  0.345873  0.001163  0.732504
  0.841326  0.831530  0.712100  0.003289  0.001473  0.347611  0.001191  0.724485
  0.851295  0.841470  0.704030  0.003332  0.001480  0.347600  0.001211  0.716996
  0.861284  0.851440  0.696780  0.003353  0.001484  0.348660  0.001234  0.710076
  0.871293  0.861440  0.690470  0.003347  0.001485  0.352993  0.001264  0.703802
  0.881325  0.871470  0.685140  0.003315  0.001485  0.361311  0.001314  0.698245
  0.891395  0.881540  0.681110  0.003254  0.001484  0.380986  0.001399  0.693623
  0.901487  0.891630  0.678410  0.003164  0.001481  0.416531  0.001530  0.690064
  0.911627  0.901760  0.677270  0.003047  0.001474  0.461975  0.001702  0.687907
  0.921810  0.911920  0.678000  0.002904  0.001460  0.523543  0.001917  0.687439
  0.932046  0.922110  0.680800  0.002739  0.001436  0.601503  0.002196  0.689042
  0.942344  0.932330  0.686060  0.002554  0.001402  0.717471  0.002565  0.693067
  0.952713  0.942580  0.694240  0.002354  0.001354  0.871609  0.003024  0.700183
  0.963175  0.952870  0.706130  0.002139  0.001290  1.064363  0.003555  0.711287
  0.973736  0.963190  0.722810  0.001910  0.001206  1.307393  0.004157  0.727620
  0.984407  0.973540  0.746340  0.001662  0.001098  1.636582  0.004884  0.751571
  0.995216  0.983930  0.782330  0.001376  0.000954  2.170382  0.006132  0.789784
  1.006177  0.994360  0.893530  0.000909  0.000679  3.964549  0.008202  0.892261
