title= "2d inverse b. l. summary"
variables="s","x/c","uei","delst","theta","vw""cf","uev" 
zone i=  101 F = point
  0.000000  0.005013  0.000000  0.000000  0.000000  0.000000  0.000000  0.000000
  0.004332  0.006250  0.555950  0.000070  0.000030  0.771116  0.026780  0.555950
  0.017829  0.017960  0.716980  0.000146  0.000062  0.664095  0.010011  0.716980
  0.029841  0.028730  0.825400  0.000170  0.000074  0.705143  0.007658  0.825400
  0.041332  0.039290  0.902990  0.000193  0.000083  0.692398  0.006109  0.902990
  0.052453  0.049720  0.960220  0.000213  0.000091  0.678913  0.005156  0.960220
  0.063313  0.060070  1.002520  0.000234  0.000100  0.650320  0.004399  1.002520
  0.073965  0.070350  1.033300  0.000256  0.000108  0.620870  0.003828  1.033300
  0.084464  0.080580  1.055070  0.000279  0.000117  0.584728  0.003338  1.055070
  0.094841  0.090770  1.069600  0.000305  0.000126  0.548622  0.002936  1.069600
  0.105121  0.100920  1.078500  0.000332  0.000135  0.510115  0.002582  1.078500
  0.115326  0.111040  1.082950  0.000361  0.000145  0.472910  0.002281  1.082950
  0.125473  0.121130  1.084050  0.000392  0.000155  0.434946  0.002010  1.084050
  0.135567  0.131190  1.082520  0.000426  0.000166  0.398046  0.001771  1.082520
  0.145637  0.141240  1.079040  0.000461  0.000177  0.408508  0.001577  1.078560
  0.155668  0.151260  1.074270  0.000496  0.000188  0.374006  0.001403  1.073832
  0.165683  0.161270  1.068550  0.000534  0.000199  0.338098  0.001242  1.068270
  0.175675  0.171260  1.062220  0.000575  0.000210  0.301812  0.001092  1.062301
  0.185645  0.181230  1.055540  0.000618  0.000221  0.269010  0.000960  1.056038
  0.195615  0.191200  1.048850  0.000661  0.000232  0.241516  0.000849  1.049707
  0.205566  0.201150  1.042200  0.000704  0.000243  0.217813  0.000756  1.043452
  0.215507  0.211090  1.035740  0.000746  0.000254  0.198502  0.000682  1.037393
  0.225438  0.221020  1.029730  0.000786  0.000264  0.184347  0.000624  1.031657
  0.235361  0.230940  1.024010  0.000824  0.000274  0.173025  0.000581  1.026253
  0.245274  0.240850  1.018740  0.000859  0.000284  0.165590  0.000549  1.021227
  0.255188  0.250760  1.013930  0.000890  0.000293  0.161566  0.000530  1.016596
  0.265093  0.260660  1.009640  0.000918  0.000302  0.160905  0.000522  1.012383
  0.274988  0.270550  1.005860  0.000941  0.000310  0.163062  0.000523  1.008593
  0.284883  0.280440  1.002520  0.000961  0.000318  0.167375  0.000531  1.005212
  0.294768  0.290320  0.999670  0.000977  0.000326  0.174051  0.000546  1.002246
  0.304644  0.300190  0.997350  0.000989  0.000333  0.182951  0.000566  0.999703
  0.314530  0.310070  0.995440  0.000998  0.000339  0.192903  0.000589  0.997555
  0.324396  0.319930  0.993860  0.001005  0.000345  0.203292  0.000614  0.995773
  0.334272  0.329800  0.992690  0.001010  0.000351  0.214746  0.000640  0.994346
  0.344138  0.339660  0.991850  0.001013  0.000356  0.226406  0.000666  0.993250
  0.354004  0.349520  0.991270  0.001016  0.000360  0.237877  0.000692  0.992447
  0.363871  0.359380  0.991100  0.001017  0.000365  0.250056  0.000716  0.991936
  0.373737  0.369240  0.991020  0.001019  0.000369  0.260094  0.000736  0.991629
  0.383595  0.379090  0.991020  0.001021  0.000373  0.268697  0.000752  0.991470
  0.393463  0.388950  0.991270  0.001024  0.000377  0.277357  0.000765  0.991457
  0.403322  0.398800  0.991520  0.001028  0.000380  0.283669  0.000773  0.991515
  0.413182  0.408650  0.991770  0.001032  0.000384  0.288216  0.000776  0.991594
  0.423043  0.418500  0.992020  0.001039  0.000388  0.291166  0.000774  0.991657
  0.432915  0.428360  0.992190  0.001047  0.000392  0.291855  0.000767  0.991652
  0.442779  0.438210  0.992190  0.001057  0.000396  0.289847  0.000754  0.991521
  0.452645  0.448060  0.992020  0.001070  0.000400  0.285573  0.000735  0.991226
  0.462513  0.457910  0.991690  0.001085  0.000404  0.279104  0.000711  0.990738
  0.472394  0.467770  0.991020  0.001103  0.000409  0.269052  0.000680  0.989995
  0.482268  0.477620  0.990100  0.001126  0.000415  0.256654  0.000642  0.988980
  0.492155  0.487480  0.988760  0.001153  0.000420  0.240684  0.000598  0.987650
  0.502047  0.497340  0.987090  0.001184  0.000426  0.222467  0.000549  0.986006
  0.511943  0.507200  0.984990  0.001221  0.000433  0.201494  0.000495  0.984044
  0.521843  0.517060  0.982460  0.001264  0.000440  0.178532  0.000436  0.981784
  0.531748  0.526920  0.979420  0.001314  0.000448  0.154133  0.000376  0.979263
  0.541669  0.536790  0.975950  0.001370  0.000456  0.130233  0.000316  0.976554
  0.551597  0.546660  0.971960  0.001430  0.000465  0.105698  0.000255  0.973537
  0.561530  0.556530  0.967430  0.001493  0.000475  0.078881  0.000190  0.970160
  0.571470  0.566400  0.962370  0.001554  0.000485  0.050861  0.000121  0.966448
  0.581428  0.576280  0.956760  0.001609  0.000497  0.020372  0.000050  0.962033
  0.591383  0.586150  0.950600  0.001653  0.000512 -0.008170 -0.000014  0.956564
  0.601366  0.596040  0.943960  0.001683  0.000531 -0.027010 -0.000057  0.949781
  0.611346  0.605920  0.936830  0.001700  0.000554 -0.031975 -0.000070  0.941826
  0.621343  0.615810  0.929110  0.001707  0.000580 -0.023077 -0.000039  0.932703
  0.631348  0.625700  0.920870  0.001710  0.000611  0.014793  0.000043  0.922890
  0.641359  0.635590  0.912290  0.001717  0.000643  0.060348  0.000150  0.913124
  0.651387  0.645490  0.903270  0.001731  0.000677  0.098403  0.000252  0.903338
  0.661420  0.655390  0.893780  0.001756  0.000713  0.131218  0.000342  0.893486
  0.671470  0.665300  0.883900  0.001792  0.000751  0.158817  0.000421  0.883499
  0.681523  0.675210  0.873730  0.001837  0.000792  0.182466  0.000490  0.873378
  0.691580  0.685120  0.863150  0.001893  0.000836  0.199729  0.000551  0.863067
  0.701648  0.695040  0.852440  0.001958  0.000883  0.217979  0.000608  0.852641
  0.711545  0.704790  0.841780  0.002031  0.000933  0.232566  0.000656  0.842362
  0.721289  0.714390  0.830990  0.002111  0.000982  0.237746  0.000695  0.832022
  0.731051  0.724010  0.820060  0.002200  0.001037  0.251062  0.000735  0.821776
  0.740831  0.733650  0.809090  0.002297  0.001092  0.255229  0.000770  0.811497
  0.750636  0.743320  0.798270  0.002399  0.001148  0.261896  0.000798  0.801346
  0.760454  0.753010  0.787200  0.002510  0.001204  0.262649  0.000819  0.791290
  0.770297  0.762730  0.776190  0.002625  0.001259  0.262146  0.000835  0.781371
  0.780159  0.772480  0.765560  0.002741  0.001312  0.262861  0.000850  0.771697
  0.790031  0.782250  0.755000  0.002858  0.001361  0.261168  0.000862  0.762281
  0.799924  0.792050  0.744620  0.002974  0.001406  0.259250  0.000873  0.753184
  0.809823  0.801870  0.734770  0.003083  0.001444  0.259574  0.000902  0.744536
  0.819751  0.811730  0.725130  0.003183  0.001480  0.277052  0.000967  0.735889
  0.829684  0.821610  0.716050  0.003270  0.001510  0.299031  0.001052  0.727579
  0.839645  0.831530  0.707560  0.003341  0.001532  0.314954  0.001127  0.719801
  0.849614  0.841470  0.699800  0.003395  0.001548  0.326237  0.001186  0.712641
  0.859603  0.851440  0.692780  0.003428  0.001560  0.335466  0.001237  0.706131
  0.869612  0.861440  0.686780  0.003436  0.001566  0.345304  0.001289  0.700358
  0.879644  0.871470  0.681700  0.003419  0.001570  0.358441  0.001356  0.695334
  0.889714  0.881540  0.677800  0.003372  0.001570  0.381985  0.001455  0.691178
  0.899806  0.891630  0.675360  0.003294  0.001567  0.417248  0.001593  0.688104
  0.909946  0.901760  0.674500  0.003186  0.001559  0.464368  0.001765  0.686340
  0.920129  0.911920  0.675230  0.003050  0.001544  0.518282  0.001971  0.686165
  0.930365  0.922110  0.678290  0.002885  0.001518  0.592127  0.002238  0.687997
  0.940663  0.932330  0.683640  0.002698  0.001482  0.703017  0.002603  0.692134
  0.951032  0.942580  0.692070  0.002488  0.001431  0.853196  0.003064  0.699365
  0.961494  0.952870  0.704160  0.002261  0.001361  1.041014  0.003600  0.710565
  0.972055  0.963190  0.721010  0.002017  0.001272  1.280460  0.004216  0.727021
  0.982726  0.973540  0.745060  0.001749  0.001155  1.612946  0.004977  0.751395
  0.993535  0.983930  0.782140  0.001439  0.000998  2.159844  0.006304  0.790722
  1.004496  0.994360  0.899320  0.000932  0.000699  4.040825  0.008515  0.898330
