title= "2d inverse b. l. summary"
variables="s","x/c","uei","delst","theta","vw""cf","uev" 
zone i=  101 F = point
  0.000000  0.004042  0.000000  0.000000  0.000000  0.000000  0.000000  0.000000
  0.007731  0.006250  0.971120  0.000088  0.000036  0.500764  0.009161  0.971120
  0.021227  0.017960  0.971930  0.000188  0.000071  0.347383  0.003834  0.971930
  0.033240  0.028730  1.038720  0.000195  0.000082  0.525952  0.004487  1.038720
  0.044730  0.039290  1.091740  0.000208  0.000088  0.551943  0.003959  1.091740
  0.055852  0.049720  1.131510  0.000224  0.000095  0.555374  0.003502  1.131510
  0.066712  0.060070  1.160050  0.000244  0.000102  0.535484  0.003051  1.160050
  0.077364  0.070350  1.179410  0.000265  0.000110  0.511731  0.002685  1.179410
  0.087862  0.080580  1.191340  0.000289  0.000118  0.478630  0.002345  1.191340
  0.098239  0.090770  1.197280  0.000315  0.000127  0.444752  0.002056  1.197280
  0.108519  0.100920  1.198500  0.000344  0.000136  0.406508  0.001787  1.198500
  0.118725  0.111040  1.196060  0.000376  0.000146  0.368072  0.001548  1.196060
  0.128872  0.121130  1.190960  0.000412  0.000156  0.327143  0.001324  1.190960
  0.138966  0.131190  1.183790  0.000451  0.000167  0.286423  0.001119  1.183790
  0.149036  0.141240  1.175180  0.000494  0.000178  0.314560  0.000945  1.174724
  0.159067  0.151260  1.165770  0.000539  0.000190  0.269503  0.000790  1.165425
  0.169082  0.161270  1.155820  0.000588  0.000201  0.223668  0.000648  1.155807
  0.179074  0.171260  1.145540  0.000643  0.000213  0.179319  0.000515  1.146246
  0.189044  0.181230  1.135320  0.000703  0.000224  0.139761  0.000399  1.136955
  0.199014  0.191200  1.125400  0.000765  0.000236  0.106626  0.000302  1.128114
  0.208964  0.201150  1.115740  0.000829  0.000246  0.079466  0.000225  1.119848
  0.218905  0.211090  1.106540  0.000890  0.000256  0.059778  0.000169  1.112230
  0.228837  0.221020  1.097990  0.000945  0.000266  0.048055  0.000136  1.105278
  0.238760  0.230940  1.089930  0.000988  0.000275  0.044178  0.000121  1.098961
  0.248673  0.240850  1.082510  0.001012  0.000284  0.043547  0.000111  1.093122
  0.258587  0.250760  1.075660  0.000998  0.000296  0.035516  0.000126  1.084956
  0.268492  0.260660  1.069530  0.000952  0.000311  0.075595  0.000246  1.075235
  0.278386  0.270550  1.064000  0.000892  0.000328  0.185698  0.000509  1.065788
  0.288282  0.280440  1.059080  0.000838  0.000342  0.323646  0.000850  1.058413
  0.298167  0.290320  1.054700  0.000797  0.000355  0.459047  0.001206  1.052807
  0.308043  0.300190  1.050950  0.000768  0.000367  0.602312  0.001564  1.048365
  0.317928  0.310070  1.047700  0.000751  0.000381  0.746740  0.001915  1.044868
  0.327794  0.319930  1.044880  0.000743  0.000395  0.882008  0.002239  1.042099
  0.337670  0.329800  1.042520  0.000742  0.000410  1.006209  0.002528  1.039909
  0.347536  0.339660  1.040540  0.000747  0.000425  1.117618  0.002780  1.038159
  0.357403  0.349520  1.038960  0.000756  0.000442  1.218028  0.002996  1.036798
  0.367269  0.359380  1.037700  0.000769  0.000458  1.306999  0.003178  1.035737
  0.377136  0.369240  1.036610  0.000784  0.000476  1.383839  0.003328  1.034876
  0.386994  0.379090  1.035670  0.000802  0.000494  1.450130  0.003450  1.034158
  0.396862  0.388950  1.034970  0.000821  0.000512  1.509780  0.003551  1.033597
  0.406720  0.398800  1.034350  0.000841  0.000531  1.561327  0.003629  1.033131
  0.416580  0.408650  1.033680  0.000863  0.000550  1.602232  0.003687  1.032640
  0.426441  0.418500  1.033090  0.000887  0.000569  1.637847  0.003727  1.032179
  0.436314  0.428360  1.032380  0.000911  0.000588  1.665352  0.003752  1.031612
  0.446178  0.438210  1.031530  0.000936  0.000608  1.686498  0.003763  1.030897
  0.456044  0.448060  1.030550  0.000962  0.000628  1.701935  0.003765  1.030010
  0.465912  0.457910  1.029400  0.000989  0.000647  1.714945  0.003758  1.028936
  0.475793  0.467770  1.027890  0.001018  0.000667  1.719372  0.003740  1.027540
  0.485667  0.477620  1.026120  0.001047  0.000687  1.718913  0.003713  1.025854
  0.495554  0.487480  1.024010  0.001078  0.000707  1.713712  0.003680  1.023819
  0.505446  0.497340  1.021480  0.001110  0.000728  1.703579  0.003640  1.021378
  0.515341  0.507200  1.018590  0.001143  0.000749  1.689704  0.003590  1.018554
  0.525241  0.517060  1.015210  0.001179  0.000771  1.662776  0.003529  1.015291
  0.535147  0.526920  1.011370  0.001216  0.000794  1.636357  0.003465  1.011546
  0.545068  0.536790  1.007060  0.001255  0.000817  1.608156  0.003401  1.007324
  0.554995  0.546660  1.002220  0.001297  0.000841  1.575516  0.003334  1.002595
  0.564929  0.556530  0.996830  0.001341  0.000865  1.538385  0.003261  0.997344
  0.574869  0.566400  0.990960  0.001388  0.000891  1.497936  0.003183  0.991607
  0.584827  0.576280  0.984490  0.001438  0.000917  1.452218  0.003099  0.985323
  0.594782  0.586150  0.977550  0.001490  0.000943  1.403117  0.003011  0.978559
  0.604765  0.596040  0.970050  0.001546  0.000971  1.351048  0.002918  0.971282
  0.614745  0.605920  0.962120  0.001605  0.000998  1.296307  0.002820  0.963568
  0.624742  0.615810  0.953610  0.001668  0.001027  1.236752  0.002715  0.955360
  0.634747  0.625700  0.944510  0.001734  0.001055  1.172732  0.002604  0.946625
  0.644757  0.635590  0.935060  0.001803  0.001084  1.108105  0.002488  0.937461
  0.654786  0.645490  0.925190  0.001875  0.001112  1.042123  0.002370  0.927884
  0.664819  0.655390  0.914880  0.001950  0.001139  0.974463  0.002248  0.917927
  0.674869  0.665300  0.904180  0.002029  0.001166  0.906168  0.002130  0.907648
  0.684922  0.675210  0.893280  0.002110  0.001192  0.851311  0.002035  0.897092
  0.694978  0.685120  0.881910  0.002194  0.001218  0.812381  0.001970  0.886153
  0.705046  0.695040  0.870380  0.002282  0.001243  0.778039  0.001916  0.875066
  0.714943  0.704790  0.858990  0.002370  0.001265  0.741838  0.001860  0.864110
  0.724688  0.714390  0.847510  0.002460  0.001286  0.702398  0.001795  0.853209
  0.734450  0.724010  0.835880  0.002552  0.001304  0.661355  0.001723  0.842234
  0.744230  0.733650  0.824150  0.002645  0.001319  0.618698  0.001644  0.831239
  0.754035  0.743320  0.812630  0.002737  0.001331  0.576054  0.001560  0.820313
  0.763853  0.753010  0.800870  0.002829  0.001341  0.531048  0.001475  0.809363
  0.773695  0.762730  0.789170  0.002917  0.001348  0.493788  0.001394  0.798431
  0.783557  0.772480  0.777840  0.002999  0.001351  0.454601  0.001310  0.787709
  0.793430  0.782250  0.766650  0.003073  0.001352  0.413939  0.001221  0.777154
  0.803322  0.792050  0.755700  0.003138  0.001352  0.376871  0.001134  0.766767
  0.813222  0.801870  0.745090  0.003191  0.001350  0.342149  0.001056  0.756625
  0.823150  0.811730  0.734980  0.003229  0.001349  0.316232  0.001003  0.746736
  0.833083  0.821610  0.725320  0.003251  0.001349  0.306780  0.000982  0.737123
  0.843044  0.831530  0.716290  0.003255  0.001350  0.299058  0.000978  0.727982
  0.853013  0.841470  0.708000  0.003239  0.001353  0.296204  0.000990  0.719353
  0.863002  0.851440  0.700490  0.003204  0.001357  0.302449  0.001029  0.711304
  0.873010  0.861440  0.693950  0.003151  0.001362  0.319841  0.001105  0.704131
  0.883043  0.871470  0.688400  0.003079  0.001367  0.350038  0.001222  0.697889
  0.893113  0.881540  0.684060  0.002991  0.001371  0.391499  0.001371  0.692801
  0.903205  0.891630  0.681300  0.002885  0.001371  0.437577  0.001544  0.689166
  0.913344  0.901760  0.679960  0.002764  0.001365  0.494386  0.001745  0.687053
  0.923528  0.911920  0.680400  0.002629  0.001353  0.563696  0.001987  0.686764
  0.933764  0.922110  0.683170  0.002479  0.001331  0.656350  0.002292  0.688636
  0.944061  0.932330  0.688230  0.002316  0.001299  0.782582  0.002674  0.692941
  0.954431  0.942580  0.696220  0.002141  0.001255  0.940290  0.003122  0.700321
  0.964893  0.952870  0.707920  0.001954  0.001196  1.132840  0.003621  0.711602
  0.975453  0.963190  0.724310  0.001755  0.001120  1.372422  0.004177  0.727924
  0.986125  0.973540  0.747450  0.001538  0.001024  1.695895  0.004843  0.751588
  0.996934  0.983930  0.782280  0.001287  0.000895  2.210431  0.005983  0.788667
  1.007895  0.994360  0.887410  0.000869  0.000648  3.917632  0.007878  0.886095
