title= "2d inverse b. l. summary"
variables="s","x/c","uei","delst","theta","vw""cf","uev" 
zone i=  101 F = point
  0.000000  0.004042  0.000000  0.000000  0.000000  0.000000  0.000000  0.000000
  0.007731  0.006250  0.971120  0.000088  0.000036  0.500764  0.009159  0.971120
  0.021227  0.017960  0.971930  0.000188  0.000071  0.347383  0.003833  0.971930
  0.033240  0.028730  1.038720  0.000195  0.000082  0.525952  0.004486  1.038720
  0.044730  0.039290  1.091740  0.000208  0.000088  0.551943  0.003958  1.091740
  0.055852  0.049720  1.131510  0.000224  0.000095  0.555374  0.003501  1.131510
  0.066712  0.060070  1.160050  0.000244  0.000102  0.535484  0.003051  1.160050
  0.077364  0.070350  1.179410  0.000265  0.000110  0.511731  0.002685  1.179410
  0.087862  0.080580  1.191340  0.000289  0.000118  0.478630  0.002345  1.191340
  0.098239  0.090770  1.197280  0.000315  0.000127  0.444752  0.002055  1.197280
  0.108519  0.100920  1.198500  0.000344  0.000136  0.406508  0.001786  1.198500
  0.118725  0.111040  1.196060  0.000376  0.000146  0.368072  0.001548  1.196060
  0.128872  0.121130  1.190960  0.000412  0.000156  0.327143  0.001323  1.190960
  0.138966  0.131190  1.183790  0.000451  0.000167  0.286423  0.001119  1.183790
  0.149036  0.141240  1.175180  0.000496  0.000179  0.308037  0.000932  1.174268
  0.159067  0.151260  1.165770  0.000541  0.000190  0.265244  0.000777  1.164858
  0.169082  0.161270  1.155820  0.000591  0.000202  0.220445  0.000639  1.155202
  0.179074  0.171260  1.145540  0.000646  0.000213  0.176717  0.000508  1.145620
  0.189044  0.181230  1.135320  0.000705  0.000225  0.137470  0.000393  1.136321
  0.199014  0.191200  1.125400  0.000768  0.000236  0.104494  0.000297  1.127481
  0.208964  0.201150  1.115740  0.000832  0.000247  0.077436  0.000220  1.119221
  0.218905  0.211090  1.106540  0.000894  0.000257  0.057816  0.000164  1.111614
  0.228837  0.221020  1.097990  0.000949  0.000266  0.046115  0.000131  1.104674
  0.238760  0.230940  1.089930  0.000993  0.000275  0.042218  0.000116  1.098366
  0.248673  0.240850  1.082510  0.001016  0.000284  0.041596  0.000106  1.092538
  0.258587  0.250760  1.075660  0.001002  0.000296  0.032943  0.000119  1.084357
  0.268492  0.260660  1.069530  0.000955  0.000312  0.072434  0.000239  1.074579
  0.278386  0.270550  1.064000  0.000895  0.000328  0.183006  0.000502  1.065067
  0.288282  0.280440  1.059080  0.000840  0.000342  0.321685  0.000845  1.057661
  0.298167  0.290320  1.054700  0.000799  0.000355  0.457028  0.001202  1.052052
  0.308043  0.300190  1.050950  0.000770  0.000368  0.599918  0.001560  1.047603
  0.317928  0.310070  1.047700  0.000752  0.000381  0.744223  0.001911  1.044096
  0.327794  0.319930  1.044880  0.000744  0.000395  0.879509  0.002236  1.041318
  0.337670  0.329800  1.042520  0.000743  0.000410  1.003713  0.002525  1.039117
  0.347536  0.339660  1.040540  0.000748  0.000426  1.115052  0.002777  1.037356
  0.357403  0.349520  1.038960  0.000758  0.000442  1.215345  0.002993  1.035981
  0.367269  0.359380  1.037700  0.000770  0.000459  1.303831  0.003175  1.034929
  0.377136  0.369240  1.036610  0.000786  0.000477  1.379665  0.003323  1.034053
  0.386994  0.379090  1.035670  0.000803  0.000495  1.446337  0.003446  1.033316
  0.396862  0.388950  1.034970  0.000822  0.000513  1.506308  0.003548  1.032739
  0.406720  0.398800  1.034350  0.000843  0.000531  1.558014  0.003627  1.032259
  0.416580  0.408650  1.033680  0.000865  0.000550  1.598884  0.003685  1.031755
  0.426441  0.418500  1.033090  0.000888  0.000569  1.634392  0.003725  1.031281
  0.436314  0.428360  1.032380  0.000912  0.000589  1.661781  0.003750  1.030699
  0.446178  0.438210  1.031530  0.000937  0.000609  1.682820  0.003761  1.029969
  0.456044  0.448060  1.030550  0.000963  0.000628  1.698173  0.003762  1.029064
  0.465912  0.457910  1.029400  0.000990  0.000648  1.711088  0.003756  1.027973
  0.475793  0.467770  1.027890  0.001019  0.000668  1.715421  0.003738  1.026559
  0.485667  0.477620  1.026120  0.001048  0.000688  1.714851  0.003711  1.024854
  0.495554  0.487480  1.024010  0.001079  0.000708  1.709536  0.003677  1.022800
  0.505446  0.497340  1.021480  0.001111  0.000729  1.699284  0.003637  1.020340
  0.515341  0.507200  1.018590  0.001145  0.000750  1.685276  0.003588  1.017495
  0.525241  0.517060  1.015210  0.001181  0.000772  1.658179  0.003526  1.014212
  0.535147  0.526920  1.011370  0.001218  0.000795  1.631597  0.003462  1.010445
  0.545068  0.536790  1.007060  0.001257  0.000818  1.603239  0.003398  1.006199
  0.554995  0.546660  1.002220  0.001299  0.000842  1.570447  0.003330  1.001445
  0.564929  0.556530  0.996830  0.001343  0.000866  1.533145  0.003257  0.996169
  0.574869  0.566400  0.990960  0.001390  0.000892  1.492521  0.003179  0.990405
  0.584827  0.576280  0.984490  0.001440  0.000918  1.446625  0.003095  0.984093
  0.594782  0.586150  0.977550  0.001493  0.000944  1.397338  0.003005  0.977300
  0.604765  0.596040  0.970050  0.001549  0.000972  1.345055  0.002912  0.969992
  0.614745  0.605920  0.962120  0.001608  0.001000  1.290100  0.002814  0.962246
  0.624742  0.615810  0.953610  0.001671  0.001028  1.230324  0.002708  0.954005
  0.634747  0.625700  0.944510  0.001738  0.001056  1.166066  0.002596  0.945235
  0.644757  0.635590  0.935060  0.001807  0.001085  1.101152  0.002480  0.936034
  0.654786  0.645490  0.925190  0.001879  0.001113  1.034871  0.002360  0.926416
  0.664819  0.655390  0.914880  0.001955  0.001140  0.966955  0.002237  0.916419
  0.674869  0.665300  0.904180  0.002034  0.001167  0.898396  0.002120  0.906098
  0.684922  0.675210  0.893280  0.002115  0.001194  0.846214  0.002029  0.895480
  0.694978  0.685120  0.881910  0.002201  0.001220  0.807759  0.001965  0.884495
  0.705046  0.695040  0.870380  0.002289  0.001244  0.772872  0.001911  0.873360
  0.714943  0.704790  0.858990  0.002378  0.001267  0.736142  0.001853  0.862353
  0.724688  0.714390  0.847510  0.002468  0.001287  0.696214  0.001786  0.851397
  0.734450  0.724010  0.835880  0.002562  0.001305  0.654616  0.001712  0.840366
  0.744230  0.733650  0.824150  0.002656  0.001320  0.611347  0.001632  0.829308
  0.754035  0.743320  0.812630  0.002749  0.001332  0.568094  0.001546  0.818313
  0.763853  0.753010  0.800870  0.002842  0.001341  0.522409  0.001458  0.807290
  0.773695  0.762730  0.789170  0.002932  0.001347  0.484473  0.001374  0.796275
  0.783557  0.772480  0.777840  0.003015  0.001350  0.444489  0.001288  0.785464
  0.793430  0.782250  0.766650  0.003091  0.001351  0.403048  0.001196  0.774808
  0.803322  0.792050  0.755700  0.003157  0.001349  0.365192  0.001106  0.764303
  0.813222  0.801870  0.745090  0.003212  0.001347  0.329470  0.001025  0.754024
  0.823150  0.811730  0.734980  0.003252  0.001346  0.303082  0.000962  0.743991
  0.833083  0.821610  0.725320  0.003275  0.001345  0.285149  0.000930  0.734300
  0.843044  0.831530  0.716290  0.003281  0.001347  0.281892  0.000928  0.724953
  0.853013  0.841470  0.708000  0.003267  0.001350  0.281647  0.000947  0.716138
  0.863002  0.851440  0.700490  0.003234  0.001354  0.286629  0.000986  0.707890
  0.873010  0.861440  0.693950  0.003182  0.001360  0.303550  0.001059  0.700480
  0.883043  0.871470  0.688400  0.003112  0.001366  0.332084  0.001172  0.693966
  0.893113  0.881540  0.684060  0.003024  0.001371  0.371794  0.001318  0.688556
  0.903205  0.891630  0.681300  0.002919  0.001371  0.416124  0.001488  0.684547
  0.913344  0.901760  0.679960  0.002801  0.001368  0.470609  0.001686  0.681998
  0.923528  0.911920  0.680400  0.002669  0.001357  0.536693  0.001918  0.681187
  0.933764  0.922110  0.683170  0.002522  0.001338  0.618775  0.002202  0.682451
  0.944061  0.932330  0.688230  0.002363  0.001310  0.733563  0.002560  0.685926
  0.954431  0.942580  0.696220  0.002194  0.001270  0.878976  0.002985  0.692181
  0.964893  0.952870  0.707920  0.002015  0.001217  1.053519  0.003457  0.701884
  0.975453  0.963190  0.724310  0.001827  0.001150  1.263916  0.003971  0.715849
  0.986125  0.973540  0.747450  0.001625  0.001065  1.533251  0.004553  0.735582
  0.996934  0.983930  0.782280  0.001401  0.000956  1.922248  0.005495  0.764659
  1.007895  0.994360  0.887410  0.001032  0.000750  3.102534  0.007040  0.834101
