title= "2d inverse b. l. summary"
variables="s","x/c","uei","delst","theta","vw""cf","uev" 
zone i=   51 F = point
  0.000000  0.010000  0.000000  0.000000  0.000000  0.000000  0.000000  0.000000
  0.005179  0.010000  0.471150  0.000093  0.000041  0.887726  0.037887  0.471150
  0.027585  0.030000  0.740680  0.000202  0.000087  0.740073  0.010915  0.740680
  0.049041  0.050000  0.883010  0.000254  0.000109  0.715902  0.007253  0.883010
  0.069870  0.070000  0.965060  0.000306  0.000130  0.653657  0.005307  0.965060
  0.090317  0.090000  1.010440  0.000361  0.000151  0.590552  0.004121  1.010440
  0.110538  0.110000  1.032230  0.000424  0.000173  0.520302  0.003247  1.032230
  0.130636  0.130000  1.039170  0.000493  0.000197  0.456523  0.002612  1.039170
  0.150672  0.150000  1.037170  0.000571  0.000222  0.392712  0.002094  1.037170
  0.170681  0.170000  1.030240  0.000655  0.000247  0.337033  0.001694  1.030240
  0.190681  0.190000  1.021060  0.000744  0.000273  0.289350  0.001382  1.021060
  0.210682  0.210000  1.011350  0.000832  0.000299  0.254945  0.001164  1.011350
  0.230685  0.230000  1.002220  0.000915  0.000323  0.232355  0.001019  1.002220
  0.250691  0.250000  0.994290  0.000987  0.000345  0.223619  0.000944  0.994290
  0.270700  0.270000  0.987860  0.001033  0.000364  0.229172  0.000942  0.989044
  0.290710  0.290000  0.983050  0.001081  0.000382  0.229079  0.000934  0.984437
  0.310721  0.310000  0.979830  0.001117  0.000398  0.238406  0.000945  0.981054
  0.330733  0.330000  0.978000  0.001140  0.000413  0.256598  0.000982  0.978740
  0.350745  0.350000  0.977360  0.001156  0.000425  0.275615  0.001024  0.977549
  0.370759  0.370000  0.977610  0.001170  0.000436  0.292746  0.001057  0.977245
  0.390776  0.390000  0.978370  0.001184  0.000447  0.305782  0.001075  0.977487
  0.410795  0.410000  0.979370  0.001200  0.000456  0.313901  0.001073  0.977946
  0.430820  0.430000  0.980160  0.001223  0.000466  0.314347  0.001048  0.978222
  0.450852  0.450000  0.980380  0.001255  0.000477  0.305876  0.000997  0.977940
  0.470894  0.470000  0.979710  0.001300  0.000490  0.287313  0.000917  0.976761
  0.490948  0.490000  0.977820  0.001362  0.000504  0.257169  0.000807  0.974390
  0.511017  0.510000  0.974370  0.001448  0.000521  0.214495  0.000665  0.970619
  0.531107  0.530000  0.969190  0.001568  0.000541  0.161445  0.000498  0.965486
  0.551219  0.550000  0.962000  0.001732  0.000564  0.102927  0.000318  0.959348
  0.571358  0.570000  0.952780  0.001935  0.000593  0.043984  0.000132  0.951860
  0.591525  0.590000  0.941450  0.002171  0.000628 -0.019140 -0.000058  0.942960
  0.611722  0.610000  0.928060  0.002426  0.000667 -0.080233 -0.000249  0.932784
  0.631947  0.630000  0.912710  0.002665  0.000719 -0.140626 -0.000423  0.919609
  0.652200  0.650000  0.895610  0.002867  0.000792 -0.175461 -0.000539  0.902927
  0.672472  0.670000  0.876940  0.003038  0.000889 -0.179108 -0.000563  0.883221
  0.692760  0.690000  0.857010  0.003202  0.001006 -0.149368 -0.000497  0.862010
  0.713054  0.710000  0.836200  0.003388  0.001137 -0.107891 -0.000381  0.840764
  0.733343  0.730000  0.814940  0.003610  0.001278 -0.069224 -0.000259  0.820263
  0.753613  0.750000  0.793600  0.003866  0.001423 -0.039670 -0.000151  0.800636
  0.773853  0.770000  0.772630  0.004141  0.001563 -0.012692 -0.000048  0.782132
  0.794054  0.790000  0.752700  0.004410  0.001687  0.014426  0.000066  0.765047
  0.814206  0.810000  0.734380  0.004640  0.001787  0.047171  0.000208  0.749556
  0.834305  0.830000  0.718380  0.004790  0.001861  0.089552  0.000394  0.735576
  0.854355  0.850000  0.705660  0.004821  0.001913  0.141616  0.000629  0.723654
  0.874368  0.870000  0.697330  0.004701  0.001947  0.203685  0.000941  0.714423
  0.894368  0.890000  0.694970  0.004408  0.001961  0.303625  0.001395  0.708986
  0.914394  0.910000  0.700780  0.003952  0.001933  0.454721  0.002056  0.709862
  0.934501  0.930000  0.717760  0.003374  0.001835  0.690744  0.002956  0.720472
  0.954760  0.950000  0.747850  0.002763  0.001661  1.035649  0.003974  0.743892
  0.975260  0.970000  0.786320  0.002246  0.001454  1.398867  0.004820  0.778115
  0.996112  0.990000  0.826240  0.001883  0.001274  1.700763  0.005391  0.816319
