title= "2d inverse b. l. summary"
variables="s","x/c","uei","delst","theta","vw""cf","uev" 
zone i=  101 F = point
  0.000000  0.005483  0.000000  0.000000  0.000000  0.000000  0.000000  0.000000
  0.002686  0.006250  0.348320  0.000063  0.000028  0.917779  0.052557  0.348320
  0.016182  0.017960  0.589210  0.000138  0.000060  0.782322  0.014033  0.589210
  0.028194  0.028730  0.718480  0.000166  0.000073  0.782660  0.009632  0.718480
  0.039685  0.039290  0.808270  0.000189  0.000082  0.760440  0.007437  0.808270
  0.050806  0.049720  0.874300  0.000210  0.000091  0.738177  0.006135  0.874300
  0.061667  0.060070  0.923390  0.000231  0.000099  0.706250  0.005184  0.923390
  0.072319  0.070350  0.959870  0.000253  0.000108  0.673643  0.004478  0.959870
  0.082817  0.080580  0.986580  0.000276  0.000116  0.636312  0.003899  0.986580
  0.093194  0.090770  1.005410  0.000301  0.000125  0.598706  0.003426  1.005410
  0.103474  0.100920  1.018130  0.000327  0.000135  0.559850  0.003021  1.018130
  0.113680  0.111040  1.026030  0.000355  0.000145  0.522224  0.002678  1.026030
  0.123826  0.121130  1.030220  0.000385  0.000155  0.484740  0.002377  1.030220
  0.133921  0.131190  1.031500  0.000417  0.000165  0.448443  0.002113  1.031500
  0.143991  0.141240  1.030540  0.000449  0.000176  0.436966  0.001908  1.030160
  0.154021  0.151260  1.028120  0.000482  0.000187  0.406800  0.001721  1.027780
  0.164037  0.161270  1.024530  0.000517  0.000197  0.374726  0.001546  1.024326
  0.174028  0.171260  1.020120  0.000554  0.000208  0.341197  0.001383  1.020255
  0.183999  0.181230  1.015240  0.000592  0.000219  0.311701  0.001240  1.015714
  0.193969  0.191200  1.010170  0.000631  0.000230  0.286848  0.001121  1.010935
  0.203919  0.201150  1.005040  0.000669  0.000241  0.265683  0.001022  1.006091
  0.213860  0.211090  0.999920  0.000706  0.000252  0.247881  0.000942  1.001296
  0.223792  0.221020  0.995190  0.000741  0.000262  0.235455  0.000880  0.996732
  0.233715  0.230940  0.990600  0.000774  0.000272  0.224810  0.000831  0.992392
  0.243628  0.240850  0.986410  0.000805  0.000281  0.218188  0.000796  0.988364
  0.253542  0.250760  0.982630  0.000833  0.000290  0.214699  0.000773  0.984682
  0.263446  0.260660  0.979250  0.000858  0.000299  0.213808  0.000760  0.981366
  0.273341  0.270550  0.976380  0.000879  0.000307  0.215866  0.000756  0.978446
  0.283236  0.280440  0.973830  0.000898  0.000315  0.219045  0.000759  0.975885
  0.293122  0.290320  0.971700  0.000914  0.000322  0.224348  0.000767  0.973697
  0.302997  0.300190  0.970080  0.000926  0.000329  0.231987  0.000782  0.971905
  0.312883  0.310070  0.968800  0.000937  0.000335  0.240234  0.000799  0.970472
  0.322749  0.319930  0.967860  0.000946  0.000341  0.249239  0.000819  0.969380
  0.332625  0.329800  0.967350  0.000952  0.000346  0.259534  0.000839  0.968630
  0.342491  0.339660  0.967000  0.000958  0.000351  0.268854  0.000860  0.968152
  0.352357  0.349520  0.967090  0.000962  0.000356  0.279794  0.000880  0.967974
  0.362224  0.359380  0.967350  0.000966  0.000360  0.289443  0.000898  0.968025
  0.372091  0.369240  0.967770  0.000970  0.000364  0.298192  0.000912  0.968255
  0.381949  0.379090  0.968290  0.000974  0.000368  0.305843  0.000923  0.968616
  0.391817  0.388950  0.968970  0.000978  0.000372  0.313072  0.000931  0.969089
  0.401675  0.398800  0.969650  0.000983  0.000375  0.318398  0.000935  0.969610
  0.411535  0.408650  0.970340  0.000989  0.000379  0.322416  0.000934  0.970141
  0.421396  0.418500  0.971020  0.000996  0.000383  0.325024  0.000929  0.970647
  0.431268  0.428360  0.971620  0.001004  0.000387  0.325608  0.000919  0.971077
  0.441133  0.438210  0.972040  0.001015  0.000391  0.323615  0.000903  0.971370
  0.450999  0.448060  0.972300  0.001027  0.000395  0.319686  0.000882  0.971494
  0.460867  0.457910  0.972380  0.001041  0.000399  0.313578  0.000855  0.971415
  0.470748  0.467770  0.972130  0.001059  0.000404  0.304113  0.000822  0.971069
  0.480622  0.477620  0.971620  0.001079  0.000409  0.292374  0.000782  0.970437
  0.490509  0.487480  0.970680  0.001104  0.000415  0.277012  0.000736  0.969466
  0.500400  0.497340  0.969400  0.001132  0.000421  0.259467  0.000684  0.968155
  0.510296  0.507200  0.967770  0.001165  0.000428  0.239493  0.000627  0.966501
  0.520196  0.517060  0.965630  0.001204  0.000435  0.216189  0.000563  0.964486
  0.530102  0.526920  0.963060  0.001250  0.000443  0.191062  0.000496  0.962137
  0.540022  0.536790  0.959960  0.001302  0.000451  0.164232  0.000425  0.959490
  0.549950  0.546660  0.956330  0.001362  0.000460  0.137366  0.000355  0.956619
  0.559884  0.556530  0.952250  0.001427  0.000470  0.110598  0.000284  0.953414
  0.569824  0.566400  0.947550  0.001496  0.000480  0.081710  0.000210  0.949864
  0.579781  0.576280  0.942380  0.001565  0.000491  0.052610  0.000134  0.946029
  0.589737  0.586150  0.936740  0.001630  0.000504  0.021512  0.000056  0.941599
  0.599720  0.596040  0.930440  0.001687  0.000519 -0.008954 -0.000019  0.936231
  0.609700  0.605920  0.923750  0.001730  0.000538 -0.032039 -0.000075  0.929691
  0.619697  0.615810  0.916550  0.001760  0.000562 -0.041517 -0.000101  0.921914
  0.629701  0.625700  0.908660  0.001781  0.000588 -0.039052 -0.000090  0.913169
  0.639712  0.635590  0.900420  0.001795  0.000620 -0.017240 -0.000037  0.903604
  0.649741  0.645490  0.891830  0.001810  0.000653  0.018092  0.000049  0.893759
  0.659774  0.655390  0.882780  0.001830  0.000689  0.052286  0.000142  0.883879
  0.669824  0.665300  0.873260  0.001860  0.000727  0.081780  0.000228  0.873948
  0.679877  0.675210  0.863530  0.001898  0.000767  0.108017  0.000305  0.863963
  0.689933  0.685120  0.853410  0.001947  0.000810  0.129645  0.000374  0.853871
  0.700001  0.695040  0.843060  0.002005  0.000855  0.148929  0.000436  0.843688
  0.709898  0.704790  0.832690  0.002072  0.000903  0.163955  0.000491  0.833605
  0.719642  0.714390  0.822380  0.002146  0.000953  0.179000  0.000539  0.823677
  0.729405  0.724010  0.811850  0.002228  0.001005  0.186103  0.000582  0.813601
  0.739185  0.733650  0.801170  0.002320  0.001060  0.200073  0.000626  0.803638
  0.748990  0.743320  0.790670  0.002417  0.001116  0.206515  0.000664  0.793701
  0.758807  0.753010  0.780020  0.002522  0.001174  0.213448  0.000697  0.783876
  0.768650  0.762730  0.769330  0.002634  0.001233  0.218582  0.000728  0.774215
  0.778512  0.772480  0.758930  0.002749  0.001292  0.223431  0.000757  0.764798
  0.788385  0.782250  0.748720  0.002864  0.001348  0.227016  0.000784  0.755645
  0.798277  0.792050  0.738810  0.002979  0.001402  0.230689  0.000810  0.746795
  0.808176  0.801870  0.729110  0.003092  0.001451  0.233617  0.000837  0.738285
  0.818104  0.811730  0.719860  0.003198  0.001495  0.238350  0.000867  0.730180
  0.828038  0.821610  0.711060  0.003293  0.001532  0.244177  0.000913  0.722570
  0.837999  0.831530  0.702870  0.003373  0.001566  0.263072  0.000989  0.715202
  0.847968  0.841470  0.695410  0.003433  0.001594  0.286986  0.001086  0.708284
  0.857956  0.851440  0.688590  0.003475  0.001615  0.308448  0.001182  0.702004
  0.867965  0.861440  0.682790  0.003493  0.001630  0.328678  0.001273  0.696518
  0.877998  0.871470  0.677930  0.003485  0.001639  0.348576  0.001368  0.691873
  0.888068  0.881540  0.674250  0.003449  0.001644  0.375966  0.001485  0.688133
  0.898160  0.891630  0.672040  0.003382  0.001642  0.413824  0.001635  0.685484
  0.908299  0.901760  0.671300  0.003283  0.001635  0.460812  0.001814  0.684108
  0.918483  0.911920  0.672290  0.003154  0.001619  0.514842  0.002028  0.684309
  0.928719  0.922110  0.675480  0.002994  0.001592  0.592221  0.002310  0.686387
  0.939016  0.932330  0.681090  0.002807  0.001554  0.702971  0.002682  0.690773
  0.949386  0.942580  0.689550  0.002596  0.001500  0.846098  0.003139  0.698140
  0.959848  0.952870  0.701810  0.002362  0.001427  1.029248  0.003674  0.709473
  0.970408  0.963190  0.718940  0.002107  0.001331  1.265944  0.004301  0.726137
  0.981080  0.973540  0.743500  0.001823  0.001207  1.599795  0.005088  0.750955
  0.991889  0.983930  0.781720  0.001491  0.001037  2.159286  0.006485  0.791423
  1.002850  0.994360  0.904820  0.000949  0.000715  4.125051  0.008825  0.904170
