title= "2d inverse b. l. summary"
variables="s","x/c","uei","delst","theta","vw""cf","uev" 
zone i=  101 F = point
  0.000000  0.005484  0.000000  0.000000  0.000000  0.000000  0.000000  0.000000
  0.002682  0.006250  0.347230  0.000042  0.000019  0.918142  0.035095  0.347230
  0.016178  0.017960  0.587890  0.000092  0.000040  0.783055  0.009366  0.587890
  0.028190  0.028730  0.717300  0.000111  0.000048  0.783742  0.006429  0.717300
  0.039681  0.039290  0.807360  0.000126  0.000055  0.761573  0.004963  0.807360
  0.050802  0.049720  0.873550  0.000140  0.000060  0.739586  0.004095  0.873550
  0.061663  0.060070  0.922970  0.000154  0.000066  0.707774  0.003461  0.922970
  0.072314  0.070350  0.959630  0.000168  0.000072  0.674922  0.002988  0.959630
  0.082813  0.080580  0.986470  0.000184  0.000077  0.637520  0.002602  0.986470
  0.093190  0.090770  1.005430  0.000200  0.000083  0.599861  0.002286  1.005430
  0.103470  0.100920  1.018240  0.000218  0.000090  0.560830  0.002015  1.018240
  0.113676  0.111040  1.026190  0.000236  0.000096  0.523047  0.001786  1.026190
  0.123822  0.121130  1.030420  0.000256  0.000103  0.485449  0.001585  1.030420
  0.133916  0.131190  1.031720  0.000277  0.000110  0.449023  0.001409  1.031720
  0.143987  0.141240  1.030770  0.000298  0.000117  0.438648  0.001273  1.030484
  0.154017  0.151260  1.028300  0.000321  0.000124  0.407172  0.001147  1.028059
  0.164032  0.161270  1.024700  0.000344  0.000131  0.374472  0.001028  1.024541
  0.174024  0.171260  1.020250  0.000369  0.000139  0.339378  0.000916  1.020341
  0.183995  0.181230  1.015340  0.000395  0.000146  0.309191  0.000819  1.015665
  0.193965  0.191200  1.010240  0.000421  0.000153  0.283914  0.000739  1.010761
  0.203915  0.201150  1.005060  0.000447  0.000161  0.262154  0.000672  1.005788
  0.213856  0.211090  0.999950  0.000472  0.000168  0.244361  0.000619  1.000889
  0.223788  0.221020  0.995140  0.000496  0.000175  0.231439  0.000577  0.996215
  0.233710  0.230940  0.990570  0.000518  0.000181  0.221174  0.000545  0.991796
  0.243624  0.240850  0.986350  0.000539  0.000188  0.214442  0.000522  0.987694
  0.253538  0.250760  0.982530  0.000557  0.000194  0.211005  0.000507  0.983946
  0.263442  0.260660  0.979110  0.000574  0.000199  0.210302  0.000499  0.980576
  0.273337  0.270550  0.976190  0.000588  0.000205  0.212831  0.000498  0.977619
  0.283232  0.280440  0.973640  0.000600  0.000210  0.216749  0.000501  0.975047
  0.293118  0.290320  0.971520  0.000611  0.000215  0.222812  0.000508  0.972870
  0.302993  0.300190  0.969870  0.000619  0.000219  0.231007  0.000519  0.971102
  0.312879  0.310070  0.968610  0.000625  0.000223  0.240114  0.000533  0.969714
  0.322745  0.319930  0.967680  0.000630  0.000227  0.249562  0.000546  0.968672
  0.332621  0.329800  0.967120  0.000635  0.000231  0.259954  0.000561  0.967966
  0.342487  0.339660  0.966830  0.000638  0.000234  0.270104  0.000575  0.967554
  0.352353  0.349520  0.966840  0.000641  0.000237  0.280641  0.000589  0.967419
  0.362220  0.359380  0.967120  0.000643  0.000240  0.291032  0.000602  0.967532
  0.372087  0.369240  0.967540  0.000645  0.000243  0.299918  0.000612  0.967822
  0.381945  0.379090  0.968050  0.000648  0.000245  0.307546  0.000619  0.968235
  0.391813  0.388950  0.968740  0.000650  0.000248  0.315295  0.000625  0.968773
  0.401671  0.398800  0.969490  0.000653  0.000250  0.321355  0.000628  0.969376
  0.411531  0.408650  0.970180  0.000657  0.000252  0.324928  0.000627  0.969967
  0.421392  0.418500  0.970850  0.000662  0.000255  0.327291  0.000624  0.970518
  0.431264  0.428360  0.971450  0.000667  0.000257  0.327796  0.000616  0.970988
  0.441129  0.438210  0.971850  0.000674  0.000260  0.325362  0.000605  0.971304
  0.450995  0.448060  0.972140  0.000682  0.000263  0.321744  0.000591  0.971461
  0.460863  0.457910  0.972230  0.000692  0.000266  0.315402  0.000573  0.971406
  0.470744  0.467770  0.971970  0.000704  0.000269  0.305058  0.000549  0.971057
  0.480618  0.477620  0.971410  0.000718  0.000272  0.292255  0.000521  0.970395
  0.490505  0.487480  0.970540  0.000734  0.000276  0.276698  0.000489  0.969394
  0.500396  0.497340  0.969230  0.000754  0.000280  0.257016  0.000451  0.968004
  0.510292  0.507200  0.967560  0.000778  0.000285  0.234563  0.000409  0.966223
  0.520192  0.517060  0.965420  0.000807  0.000290  0.207977  0.000361  0.964027
  0.530098  0.526920  0.962800  0.000842  0.000296  0.177823  0.000307  0.961424
  0.540018  0.536790  0.959700  0.000884  0.000302  0.144786  0.000249  0.958455
  0.549946  0.546660  0.956100  0.000935  0.000308  0.109862  0.000189  0.955199
  0.559879  0.556530  0.951940  0.000997  0.000315  0.074851  0.000130  0.951783
  0.569820  0.566400  0.947280  0.001070  0.000321  0.043071  0.000077  0.948377
  0.579777  0.576280  0.942070  0.001152  0.000328  0.016991  0.000028  0.945144
  0.589732  0.586150  0.936320  0.001237  0.000336 -0.012537 -0.000024  0.941868
  0.599716  0.596040  0.930030  0.001314  0.000344 -0.047484 -0.000084  0.938029
  0.609696  0.605920  0.923290  0.001371  0.000354 -0.089428 -0.000157  0.933296
  0.619693  0.615810  0.916010  0.001396  0.000368 -0.138674 -0.000230  0.926502
  0.629697  0.625700  0.908140  0.001383  0.000390 -0.165239 -0.000259  0.916774
  0.639708  0.635590  0.899890  0.001340  0.000417 -0.121951 -0.000192  0.904979
  0.649737  0.645490  0.891200  0.001290  0.000446 -0.024883 -0.000039  0.892918
  0.659770  0.655390  0.882070  0.001249  0.000474  0.081318  0.000145  0.881721
  0.669820  0.665300  0.872590  0.001226  0.000502  0.172728  0.000317  0.871303
  0.679873  0.675210  0.862770  0.001220  0.000530  0.246891  0.000466  0.861222
  0.689929  0.685120  0.852610  0.001229  0.000559  0.308457  0.000596  0.851165
  0.699997  0.695040  0.842230  0.001250  0.000591  0.363561  0.000711  0.841037
  0.709894  0.704790  0.831860  0.001280  0.000625  0.404385  0.000809  0.830991
  0.719638  0.714390  0.821450  0.001319  0.000660  0.440008  0.000894  0.821001
  0.729400  0.724010  0.810870  0.001365  0.000698  0.467816  0.000970  0.810929
  0.739181  0.733650  0.800230  0.001417  0.000738  0.490753  0.001037  0.800835
  0.748985  0.743320  0.789670  0.001474  0.000780  0.510242  0.001096  0.790782
  0.758803  0.753010  0.778960  0.001537  0.000822  0.522537  0.001146  0.780717
  0.768646  0.762730  0.768300  0.001603  0.000864  0.531556  0.001189  0.770738
  0.778508  0.772480  0.757870  0.001670  0.000904  0.537758  0.001229  0.760977
  0.788381  0.782250  0.747660  0.001737  0.000940  0.545769  0.001269  0.751295
  0.798273  0.792050  0.737620  0.001805  0.000974  0.551538  0.001307  0.741940
  0.808172  0.801870  0.727970  0.001870  0.001003  0.554845  0.001341  0.732995
  0.818100  0.811730  0.718680  0.001931  0.001029  0.559441  0.001392  0.724459
  0.828034  0.821610  0.709910  0.001985  0.001051  0.592263  0.001470  0.716123
  0.837995  0.831530  0.701690  0.002030  0.001069  0.607690  0.001539  0.708370
  0.847964  0.841470  0.694160  0.002065  0.001083  0.616703  0.001586  0.701199
  0.857952  0.851440  0.687400  0.002089  0.001092  0.622842  0.001622  0.694773
  0.867961  0.861440  0.681580  0.002099  0.001097  0.626435  0.001652  0.689151
  0.877994  0.871470  0.676750  0.002095  0.001099  0.632841  0.001689  0.684409
  0.888064  0.881540  0.673060  0.002073  0.001098  0.652006  0.001749  0.680667
  0.898156  0.891630  0.670810  0.002035  0.001093  0.684624  0.001845  0.678171
  0.908295  0.901760  0.670070  0.001978  0.001084  0.738846  0.001987  0.677051
  0.918479  0.911920  0.671070  0.001906  0.001070  0.818955  0.002182  0.677603
  0.928715  0.922110  0.674190  0.001817  0.001050  0.922606  0.002423  0.680222
  0.939012  0.932330  0.679810  0.001715  0.001022  1.051328  0.002703  0.685347
  0.949382  0.942580  0.688320  0.001599  0.000986  1.209500  0.003021  0.693492
  0.959844  0.952870  0.700610  0.001470  0.000938  1.409703  0.003383  0.705532
  0.970404  0.963190  0.717770  0.001328  0.000878  1.668548  0.003804  0.722737
  0.981076  0.973540  0.742330  0.001166  0.000800  2.033913  0.004331  0.747863
  0.991884  0.983930  0.780710  0.000970  0.000693  2.644904  0.005286  0.788389
  1.002845  0.994360  0.904280  0.000621  0.000476  4.861887  0.006911  0.905232
